File written on 12Aug2024 at 22:47:33 

 
                                    ------
                                    SYSTEM
                                    ------
 
                              Lattice Vectors (Ang)
                    a_1     5.035100   0.000000   0.000000
                    a_2    -2.517550   4.360525   0.000000
                    a_3     0.000000   0.000000  13.758100
 
                    Unit Cell Volume:     302.06839  (Ang^3)
 
                        Reciprocal-Space Vectors (Ang^-1)
                    b_1     1.247877   0.720462   0.000000
                    b_2     0.000000   1.440924   0.000000
                    b_3     0.000000   0.000000   0.456690
  
 *----------------------------------------------------------------------------*
 | Atom Type    Fractional Coordinate          Cartesian Coordinate (Ang)     |
 +----------------------------------------------------------------------------+
 | Fe    1   0.00000   0.00000   0.35532   |    0.00000   0.00000   4.88853   |
 | Fe    1   0.00000   0.00000   0.64468   |    0.00000   0.00000   8.86957   |
 | Fe    1   0.33333   0.66667   0.02199   |   -0.00000   2.90702   0.30250   |
 | Fe    1   0.66667   0.33333   0.68865   |    2.51755   1.45351   9.47456   |
 | Fe    1   0.33333   0.66667   0.31135   |   -0.00000   2.90702   4.28354   |
 | Fe    1   0.66667   0.33333   0.97801   |    2.51755   1.45351  13.45560   |
 | Fe    1   0.00000   0.00000   0.14468   |    0.00000   0.00000   1.99052   |
 | Fe    1   0.00000   0.00000   0.85532   |    0.00000   0.00000  11.76758   |
 | Fe    1   0.33333   0.66667   0.81135   |   -0.00000   2.90702  11.16259   |
 | Fe    1   0.33333   0.66667   0.52199   |   -0.00000   2.90702   7.18155   |
 | Fe    1   0.66667   0.33333   0.47801   |    2.51755   1.45351   6.57655   |
 | Fe    1   0.66667   0.33333   0.18865   |    2.51755   1.45351   2.59551   |
 *----------------------------------------------------------------------------*
  
 +----------------------------------------------------------------------------+
 |                    Distance to Nearest-Neighbour Shells                    |
 |                    ------------------------------------                    |
 |           Shell               Distance (Ang)            Multiplicity       |
 |           -----               --------------            ------------       |
 |             1                   2.898006                      1            |
 |             2                   2.969303                      3            |
 |             3                   3.361573                      3            |
 |             4                   3.702526                      6            |
 |             5                   3.981044                      1            |
 |             1                   2.898006                      1            |
 |             2                   2.969303                      3            |
 |             3                   3.361573                      3            |
 |             4                   3.702526                      6            |
 |             5                   3.981044                      1            |
 |             1                   2.898006                      1            |
 |             2                   2.969310                      3            |
 |             3                   3.361573                      3            |
 |             4                   3.702521                      6            |
 |             5                   3.981044                      1            |
 |             1                   2.898006                      1            |
 |             2                   2.969303                      3            |
 |             3                   3.361584                      3            |
 |             4                   3.702526                      6            |
 |             5                   3.981044                      1            |
 |             1                   2.898006                      1            |
 |             2                   2.969303                      3            |
 |             3                   3.361584                      3            |
 |             4                   3.702526                      6            |
 |             5                   3.981044                      1            |
 |             1                   2.898006                      1            |
 |             2                   2.969310                      3            |
 |             3                   3.361573                      3            |
 |             4                   3.702521                      6            |
 |             5                   3.981044                      1            |
 |             1                   2.898006                      1            |
 |             2                   2.969303                      3            |
 |             3                   3.361573                      3            |
 |             4                   3.702526                      6            |
 |             5                   3.981044                      1            |
 |             1                   2.898006                      1            |
 |             2                   2.969303                      3            |
 |             3                   3.361573                      3            |
 |             4                   3.702526                      6            |
 |             5                   3.981044                      1            |
 |             1                   2.898006                      1            |
 |             2                   2.969303                      3            |
 |             3                   3.361584                      3            |
 |             4                   3.702526                      6            |
 |             5                   3.981044                      1            |
 |             1                   2.898006                      1            |
 |             2                   2.969310                      3            |
 |             3                   3.361573                      3            |
 |             4                   3.702526                      6            |
 |             5                   3.981044                      1            |
 |             1                   2.898006                      1            |
 |             2                   2.969310                      3            |
 |             3                   3.361573                      3            |
 |             4                   3.702526                      6            |
 |             5                   3.981044                      1            |
 |             1                   2.898006                      1            |
 |             2                   2.969303                      3            |
 |             3                   3.361584                      3            |
 |             4                   3.702526                      6            |
 |             5                   3.981044                      1            |
 +----------------------------------------------------------------------------+
 *----------------------------------------------------------------------------*
 | Atom Type    Fractional Coordinate          Cartesian Coordinate (Ang)     |
 +----------------------------------------------------------------------------+
 | Fe   1   0.00000   0.00000   0.35532   |    0.00000   0.00000   4.88853    |
 ++++++++++++++++++++++++++++++++++++++++++++++++++++++++++++++++++++++++++++++
 |                1     Neighbors & Distance(Ang) =   2.898006                |
 |                ---------------------------------------------               |
 | Fe   1   0.00000   0.00000   0.14468   |    0.00000   0.00000   1.99052    |
 ++++++++++++++++++++++++++++++++++++++++++++++++++++++++++++++++++++++++++++++
 |                2     Neighbors & Distance(Ang) =   2.969303                |
 |                ---------------------------------------------               |
 | Fe   1   0.33333   0.66667   0.31135   |   -0.00000   2.90702   4.28354    |
 | Fe   1   0.33333  -0.33333   0.31135   |    2.51755  -1.45351   4.28354    |
 | Fe   1  -0.66667  -0.33333   0.31135   |   -2.51755  -1.45351   4.28354    |
 ++++++++++++++++++++++++++++++++++++++++++++++++++++++++++++++++++++++++++++++
 |                3     Neighbors & Distance(Ang) =   3.361573                |
 |                ---------------------------------------------               |
 | Fe   1   0.66667   0.33333   0.47801   |    2.51755   1.45351   6.57655    |
 | Fe   1  -0.33333   0.33333   0.47801   |   -2.51755   1.45351   6.57655    |
 | Fe   1  -0.33333  -0.66667   0.47801   |    0.00000  -2.90702   6.57655    |
 ++++++++++++++++++++++++++++++++++++++++++++++++++++++++++++++++++++++++++++++
 |                4     Neighbors & Distance(Ang) =   3.702526                |
 |                ---------------------------------------------               |
 | Fe   1   0.33333   0.66667   0.52199   |   -0.00000   2.90702   7.18155    |
 | Fe   1   0.66667   0.33333   0.18865   |    2.51755   1.45351   2.59551    |
 | Fe   1   0.33333  -0.33333   0.52199   |    2.51755  -1.45351   7.18155    |
 | Fe   1  -0.33333   0.33333   0.18865   |   -2.51755   1.45351   2.59551    |
 | Fe   1  -0.66667  -0.33333   0.52199   |   -2.51755  -1.45351   7.18155    |
 | Fe   1  -0.33333  -0.66667   0.18865   |    0.00000  -2.90702   2.59551    |
 ++++++++++++++++++++++++++++++++++++++++++++++++++++++++++++++++++++++++++++++
 |                5     Neighbors & Distance(Ang) =   3.981044                |
 |                ---------------------------------------------               |
 | Fe   1   0.00000   0.00000   0.64468   |    0.00000   0.00000   8.86957    |
 *----------------------------------------------------------------------------*
 | Atom Type    Fractional Coordinate          Cartesian Coordinate (Ang)     |
 +----------------------------------------------------------------------------+
 | Fe   1   0.00000   0.00000   0.64468   |    0.00000   0.00000   8.86957    |
 ++++++++++++++++++++++++++++++++++++++++++++++++++++++++++++++++++++++++++++++
 |                1     Neighbors & Distance(Ang) =   2.898006                |
 |                ---------------------------------------------               |
 | Fe   1   0.00000   0.00000   0.85532   |    0.00000   0.00000  11.76758    |
 ++++++++++++++++++++++++++++++++++++++++++++++++++++++++++++++++++++++++++++++
 |                2     Neighbors & Distance(Ang) =   2.969303                |
 |                ---------------------------------------------               |
 | Fe   1   0.66667   0.33333   0.68865   |    2.51755   1.45351   9.47456    |
 | Fe   1  -0.33333   0.33333   0.68865   |   -2.51755   1.45351   9.47456    |
 | Fe   1  -0.33333  -0.66667   0.68865   |    0.00000  -2.90702   9.47456    |
 ++++++++++++++++++++++++++++++++++++++++++++++++++++++++++++++++++++++++++++++
 |                3     Neighbors & Distance(Ang) =   3.361573                |
 |                ---------------------------------------------               |
 | Fe   1   0.33333   0.66667   0.52199   |   -0.00000   2.90702   7.18155    |
 | Fe   1   0.33333  -0.33333   0.52199   |    2.51755  -1.45351   7.18155    |
 | Fe   1  -0.66667  -0.33333   0.52199   |   -2.51755  -1.45351   7.18155    |
 ++++++++++++++++++++++++++++++++++++++++++++++++++++++++++++++++++++++++++++++
 |                4     Neighbors & Distance(Ang) =   3.702526                |
 |                ---------------------------------------------               |
 | Fe   1   0.33333   0.66667   0.81135   |   -0.00000   2.90702  11.16259    |
 | Fe   1   0.66667   0.33333   0.47801   |    2.51755   1.45351   6.57655    |
 | Fe   1   0.33333  -0.33333   0.81135   |    2.51755  -1.45351  11.16259    |
 | Fe   1  -0.33333   0.33333   0.47801   |   -2.51755   1.45351   6.57655    |
 | Fe   1  -0.66667  -0.33333   0.81135   |   -2.51755  -1.45351  11.16259    |
 | Fe   1  -0.33333  -0.66667   0.47801   |    0.00000  -2.90702   6.57655    |
 ++++++++++++++++++++++++++++++++++++++++++++++++++++++++++++++++++++++++++++++
 |                5     Neighbors & Distance(Ang) =   3.981044                |
 |                ---------------------------------------------               |
 | Fe   1   0.00000   0.00000   0.35532   |    0.00000   0.00000   4.88853    |
 *----------------------------------------------------------------------------*
 | Atom Type    Fractional Coordinate          Cartesian Coordinate (Ang)     |
 +----------------------------------------------------------------------------+
 | Fe   1   0.33333   0.66667   0.02199   |   -0.00000   2.90702   0.30250    |
 ++++++++++++++++++++++++++++++++++++++++++++++++++++++++++++++++++++++++++++++
 |                1     Neighbors & Distance(Ang) =   2.898006                |
 |                ---------------------------------------------               |
 | Fe   1   0.33333   0.66667  -0.18865   |   -0.00000   2.90702  -2.59551    |
 ++++++++++++++++++++++++++++++++++++++++++++++++++++++++++++++++++++++++++++++
 |                2     Neighbors & Distance(Ang) =   2.969310                |
 |                ---------------------------------------------               |
 | Fe   1   0.66667   0.33333  -0.02199   |    2.51755   1.45351  -0.30250    |
 | Fe   1   0.66667   1.33333  -0.02199   |    0.00000   5.81403  -0.30250    |
 | Fe   1  -0.33333   0.33333  -0.02199   |   -2.51755   1.45351  -0.30250    |
 ++++++++++++++++++++++++++++++++++++++++++++++++++++++++++++++++++++++++++++++
 |                3     Neighbors & Distance(Ang) =   3.361573                |
 |                ---------------------------------------------               |
 | Fe   1   0.00000   0.00000   0.14468   |    0.00000   0.00000   1.99052    |
 | Fe   1   1.00000   1.00000   0.14468   |    2.51755   4.36052   1.99052    |
 | Fe   1   0.00000   1.00000   0.14468   |   -2.51755   4.36052   1.99052    |
 ++++++++++++++++++++++++++++++++++++++++++++++++++++++++++++++++++++++++++++++
 |                4     Neighbors & Distance(Ang) =   3.702521                |
 |                ---------------------------------------------               |
 | Fe   1   0.66667   0.33333   0.18865   |    2.51755   1.45351   2.59551    |
 | Fe   1   0.66667   1.33333   0.18865   |    0.00000   5.81403   2.59551    |
 | Fe   1  -0.33333   0.33333   0.18865   |   -2.51755   1.45351   2.59551    |
 | Fe   1   0.00000   0.00000  -0.14468   |    0.00000   0.00000  -1.99052    |
 | Fe   1   1.00000   1.00000  -0.14468   |    2.51755   4.36052  -1.99052    |
 | Fe   1   0.00000   1.00000  -0.14468   |   -2.51755   4.36052  -1.99052    |
 ++++++++++++++++++++++++++++++++++++++++++++++++++++++++++++++++++++++++++++++
 |                5     Neighbors & Distance(Ang) =   3.981044                |
 |                ---------------------------------------------               |
 | Fe   1   0.33333   0.66667   0.31135   |   -0.00000   2.90702   4.28354    |
 *----------------------------------------------------------------------------*
 | Atom Type    Fractional Coordinate          Cartesian Coordinate (Ang)     |
 +----------------------------------------------------------------------------+
 | Fe   1   0.66667   0.33333   0.68865   |    2.51755   1.45351   9.47456    |
 ++++++++++++++++++++++++++++++++++++++++++++++++++++++++++++++++++++++++++++++
 |                1     Neighbors & Distance(Ang) =   2.898006                |
 |                ---------------------------------------------               |
 | Fe   1   0.66667   0.33333   0.47801   |    2.51755   1.45351   6.57655    |
 ++++++++++++++++++++++++++++++++++++++++++++++++++++++++++++++++++++++++++++++
 |                2     Neighbors & Distance(Ang) =   2.969303                |
 |                ---------------------------------------------               |
 | Fe   1   0.00000   0.00000   0.64468   |    0.00000   0.00000   8.86957    |
 | Fe   1   1.00000   1.00000   0.64468   |    2.51755   4.36052   8.86957    |
 | Fe   1   1.00000   0.00000   0.64468   |    5.03510   0.00000   8.86957    |
 ++++++++++++++++++++++++++++++++++++++++++++++++++++++++++++++++++++++++++++++
 |                3     Neighbors & Distance(Ang) =   3.361584                |
 |                ---------------------------------------------               |
 | Fe   1   0.33333   0.66667   0.81135   |   -0.00000   2.90702  11.16259    |
 | Fe   1   1.33333   0.66667   0.81135   |    5.03510   2.90702  11.16259    |
 | Fe   1   0.33333  -0.33333   0.81135   |    2.51755  -1.45351  11.16259    |
 ++++++++++++++++++++++++++++++++++++++++++++++++++++++++++++++++++++++++++++++
 |                4     Neighbors & Distance(Ang) =   3.702526                |
 |                ---------------------------------------------               |
 | Fe   1   0.00000   0.00000   0.85532   |    0.00000   0.00000  11.76758    |
 | Fe   1   0.33333   0.66667   0.52199   |   -0.00000   2.90702   7.18155    |
 | Fe   1   1.00000   1.00000   0.85532   |    2.51755   4.36052  11.76758    |
 | Fe   1   1.00000   0.00000   0.85532   |    5.03510   0.00000  11.76758    |
 | Fe   1   1.33333   0.66667   0.52199   |    5.03510   2.90702   7.18155    |
 | Fe   1   0.33333  -0.33333   0.52199   |    2.51755  -1.45351   7.18155    |
 ++++++++++++++++++++++++++++++++++++++++++++++++++++++++++++++++++++++++++++++
 |                5     Neighbors & Distance(Ang) =   3.981044                |
 |                ---------------------------------------------               |
 | Fe   1   0.66667   0.33333   0.97801   |    2.51755   1.45351  13.45560    |
 *----------------------------------------------------------------------------*
 | Atom Type    Fractional Coordinate          Cartesian Coordinate (Ang)     |
 +----------------------------------------------------------------------------+
 | Fe   1   0.33333   0.66667   0.31135   |   -0.00000   2.90702   4.28354    |
 ++++++++++++++++++++++++++++++++++++++++++++++++++++++++++++++++++++++++++++++
 |                1     Neighbors & Distance(Ang) =   2.898006                |
 |                ---------------------------------------------               |
 | Fe   1   0.33333   0.66667   0.52199   |   -0.00000   2.90702   7.18155    |
 ++++++++++++++++++++++++++++++++++++++++++++++++++++++++++++++++++++++++++++++
 |                2     Neighbors & Distance(Ang) =   2.969303                |
 |                ---------------------------------------------               |
 | Fe   1   0.00000   0.00000   0.35532   |    0.00000   0.00000   4.88853    |
 | Fe   1   1.00000   1.00000   0.35532   |    2.51755   4.36052   4.88853    |
 | Fe   1   0.00000   1.00000   0.35532   |   -2.51755   4.36052   4.88853    |
 ++++++++++++++++++++++++++++++++++++++++++++++++++++++++++++++++++++++++++++++
 |                3     Neighbors & Distance(Ang) =   3.361584                |
 |                ---------------------------------------------               |
 | Fe   1   0.66667   0.33333   0.18865   |    2.51755   1.45351   2.59551    |
 | Fe   1   0.66667   1.33333   0.18865   |    0.00000   5.81403   2.59551    |
 | Fe   1  -0.33333   0.33333   0.18865   |   -2.51755   1.45351   2.59551    |
 ++++++++++++++++++++++++++++++++++++++++++++++++++++++++++++++++++++++++++++++
 |                4     Neighbors & Distance(Ang) =   3.702526                |
 |                ---------------------------------------------               |
 | Fe   1   0.00000   0.00000   0.14468   |    0.00000   0.00000   1.99052    |
 | Fe   1   0.66667   0.33333   0.47801   |    2.51755   1.45351   6.57655    |
 | Fe   1   1.00000   1.00000   0.14468   |    2.51755   4.36052   1.99052    |
 | Fe   1   0.00000   1.00000   0.14468   |   -2.51755   4.36052   1.99052    |
 | Fe   1   0.66667   1.33333   0.47801   |    0.00000   5.81403   6.57655    |
 | Fe   1  -0.33333   0.33333   0.47801   |   -2.51755   1.45351   6.57655    |
 ++++++++++++++++++++++++++++++++++++++++++++++++++++++++++++++++++++++++++++++
 |                5     Neighbors & Distance(Ang) =   3.981044                |
 |                ---------------------------------------------               |
 | Fe   1   0.33333   0.66667   0.02199   |   -0.00000   2.90702   0.30250    |
 *----------------------------------------------------------------------------*
 | Atom Type    Fractional Coordinate          Cartesian Coordinate (Ang)     |
 +----------------------------------------------------------------------------+
 | Fe   1   0.66667   0.33333   0.97801   |    2.51755   1.45351  13.45560    |
 ++++++++++++++++++++++++++++++++++++++++++++++++++++++++++++++++++++++++++++++
 |                1     Neighbors & Distance(Ang) =   2.898006                |
 |                ---------------------------------------------               |
 | Fe   1   0.66667   0.33333   1.18865   |    2.51755   1.45351  16.35361    |
 ++++++++++++++++++++++++++++++++++++++++++++++++++++++++++++++++++++++++++++++
 |                2     Neighbors & Distance(Ang) =   2.969310                |
 |                ---------------------------------------------               |
 | Fe   1   0.33333   0.66667   1.02199   |   -0.00000   2.90702  14.06060    |
 | Fe   1   1.33333   0.66667   1.02199   |    5.03510   2.90702  14.06060    |
 | Fe   1   0.33333  -0.33333   1.02199   |    2.51755  -1.45351  14.06060    |
 ++++++++++++++++++++++++++++++++++++++++++++++++++++++++++++++++++++++++++++++
 |                3     Neighbors & Distance(Ang) =   3.361573                |
 |                ---------------------------------------------               |
 | Fe   1   0.00000   0.00000   0.85532   |    0.00000   0.00000  11.76758    |
 | Fe   1   1.00000   1.00000   0.85532   |    2.51755   4.36052  11.76758    |
 | Fe   1   1.00000   0.00000   0.85532   |    5.03510   0.00000  11.76758    |
 ++++++++++++++++++++++++++++++++++++++++++++++++++++++++++++++++++++++++++++++
 |                4     Neighbors & Distance(Ang) =   3.702521                |
 |                ---------------------------------------------               |
 | Fe   1   0.33333   0.66667   0.81135   |   -0.00000   2.90702  11.16259    |
 | Fe   1   1.33333   0.66667   0.81135   |    5.03510   2.90702  11.16259    |
 | Fe   1   0.33333  -0.33333   0.81135   |    2.51755  -1.45351  11.16259    |
 | Fe   1   0.00000   0.00000   1.14468   |    0.00000   0.00000  15.74862    |
 | Fe   1   1.00000   1.00000   1.14468   |    2.51755   4.36052  15.74862    |
 | Fe   1   1.00000   0.00000   1.14468   |    5.03510   0.00000  15.74862    |
 ++++++++++++++++++++++++++++++++++++++++++++++++++++++++++++++++++++++++++++++
 |                5     Neighbors & Distance(Ang) =   3.981044                |
 |                ---------------------------------------------               |
 | Fe   1   0.66667   0.33333   0.68865   |    2.51755   1.45351   9.47456    |
 *----------------------------------------------------------------------------*
 | Atom Type    Fractional Coordinate          Cartesian Coordinate (Ang)     |
 +----------------------------------------------------------------------------+
 | Fe   1   0.00000   0.00000   0.14468   |    0.00000   0.00000   1.99052    |
 ++++++++++++++++++++++++++++++++++++++++++++++++++++++++++++++++++++++++++++++
 |                1     Neighbors & Distance(Ang) =   2.898006                |
 |                ---------------------------------------------               |
 | Fe   1   0.00000   0.00000   0.35532   |    0.00000   0.00000   4.88853    |
 ++++++++++++++++++++++++++++++++++++++++++++++++++++++++++++++++++++++++++++++
 |                2     Neighbors & Distance(Ang) =   2.969303                |
 |                ---------------------------------------------               |
 | Fe   1   0.66667   0.33333   0.18865   |    2.51755   1.45351   2.59551    |
 | Fe   1  -0.33333   0.33333   0.18865   |   -2.51755   1.45351   2.59551    |
 | Fe   1  -0.33333  -0.66667   0.18865   |    0.00000  -2.90702   2.59551    |
 ++++++++++++++++++++++++++++++++++++++++++++++++++++++++++++++++++++++++++++++
 |                3     Neighbors & Distance(Ang) =   3.361573                |
 |                ---------------------------------------------               |
 | Fe   1   0.33333   0.66667   0.02199   |   -0.00000   2.90702   0.30250    |
 | Fe   1   0.33333  -0.33333   0.02199   |    2.51755  -1.45351   0.30250    |
 | Fe   1  -0.66667  -0.33333   0.02199   |   -2.51755  -1.45351   0.30250    |
 ++++++++++++++++++++++++++++++++++++++++++++++++++++++++++++++++++++++++++++++
 |                4     Neighbors & Distance(Ang) =   3.702526                |
 |                ---------------------------------------------               |
 | Fe   1   0.33333   0.66667   0.31135   |   -0.00000   2.90702   4.28354    |
 | Fe   1   0.33333  -0.33333   0.31135   |    2.51755  -1.45351   4.28354    |
 | Fe   1  -0.66667  -0.33333   0.31135   |   -2.51755  -1.45351   4.28354    |
 | Fe   1   0.66667   0.33333  -0.02199   |    2.51755   1.45351  -0.30250    |
 | Fe   1  -0.33333   0.33333  -0.02199   |   -2.51755   1.45351  -0.30250    |
 | Fe   1  -0.33333  -0.66667  -0.02199   |    0.00000  -2.90702  -0.30250    |
 ++++++++++++++++++++++++++++++++++++++++++++++++++++++++++++++++++++++++++++++
 |                5     Neighbors & Distance(Ang) =   3.981044                |
 |                ---------------------------------------------               |
 | Fe   1   0.00000   0.00000  -0.14468   |    0.00000   0.00000  -1.99052    |
 *----------------------------------------------------------------------------*
 | Atom Type    Fractional Coordinate          Cartesian Coordinate (Ang)     |
 +----------------------------------------------------------------------------+
 | Fe   1   0.00000   0.00000   0.85532   |    0.00000   0.00000  11.76758    |
 ++++++++++++++++++++++++++++++++++++++++++++++++++++++++++++++++++++++++++++++
 |                1     Neighbors & Distance(Ang) =   2.898006                |
 |                ---------------------------------------------               |
 | Fe   1   0.00000   0.00000   0.64468   |    0.00000   0.00000   8.86957    |
 ++++++++++++++++++++++++++++++++++++++++++++++++++++++++++++++++++++++++++++++
 |                2     Neighbors & Distance(Ang) =   2.969303                |
 |                ---------------------------------------------               |
 | Fe   1   0.33333   0.66667   0.81135   |   -0.00000   2.90702  11.16259    |
 | Fe   1   0.33333  -0.33333   0.81135   |    2.51755  -1.45351  11.16259    |
 | Fe   1  -0.66667  -0.33333   0.81135   |   -2.51755  -1.45351  11.16259    |
 ++++++++++++++++++++++++++++++++++++++++++++++++++++++++++++++++++++++++++++++
 |                3     Neighbors & Distance(Ang) =   3.361573                |
 |                ---------------------------------------------               |
 | Fe   1   0.66667   0.33333   0.97801   |    2.51755   1.45351  13.45560    |
 | Fe   1  -0.33333   0.33333   0.97801   |   -2.51755   1.45351  13.45560    |
 | Fe   1  -0.33333  -0.66667   0.97801   |    0.00000  -2.90702  13.45560    |
 ++++++++++++++++++++++++++++++++++++++++++++++++++++++++++++++++++++++++++++++
 |                4     Neighbors & Distance(Ang) =   3.702526                |
 |                ---------------------------------------------               |
 | Fe   1   0.66667   0.33333   0.68865   |    2.51755   1.45351   9.47456    |
 | Fe   1  -0.33333   0.33333   0.68865   |   -2.51755   1.45351   9.47456    |
 | Fe   1  -0.33333  -0.66667   0.68865   |    0.00000  -2.90702   9.47456    |
 | Fe   1   0.33333   0.66667   1.02199   |   -0.00000   2.90702  14.06060    |
 | Fe   1   0.33333  -0.33333   1.02199   |    2.51755  -1.45351  14.06060    |
 | Fe   1  -0.66667  -0.33333   1.02199   |   -2.51755  -1.45351  14.06060    |
 ++++++++++++++++++++++++++++++++++++++++++++++++++++++++++++++++++++++++++++++
 |                5     Neighbors & Distance(Ang) =   3.981044                |
 |                ---------------------------------------------               |
 | Fe   1   0.00000   0.00000   1.14468   |    0.00000   0.00000  15.74862    |
 *----------------------------------------------------------------------------*
 | Atom Type    Fractional Coordinate          Cartesian Coordinate (Ang)     |
 +----------------------------------------------------------------------------+
 | Fe   1   0.33333   0.66667   0.81135   |   -0.00000   2.90702  11.16259    |
 ++++++++++++++++++++++++++++++++++++++++++++++++++++++++++++++++++++++++++++++
 |                1     Neighbors & Distance(Ang) =   2.898006                |
 |                ---------------------------------------------               |
 | Fe   1   0.33333   0.66667   1.02199   |   -0.00000   2.90702  14.06060    |
 ++++++++++++++++++++++++++++++++++++++++++++++++++++++++++++++++++++++++++++++
 |                2     Neighbors & Distance(Ang) =   2.969303                |
 |                ---------------------------------------------               |
 | Fe   1   0.00000   0.00000   0.85532   |    0.00000   0.00000  11.76758    |
 | Fe   1   1.00000   1.00000   0.85532   |    2.51755   4.36052  11.76758    |
 | Fe   1   0.00000   1.00000   0.85532   |   -2.51755   4.36052  11.76758    |
 ++++++++++++++++++++++++++++++++++++++++++++++++++++++++++++++++++++++++++++++
 |                3     Neighbors & Distance(Ang) =   3.361584                |
 |                ---------------------------------------------               |
 | Fe   1   0.66667   0.33333   0.68865   |    2.51755   1.45351   9.47456    |
 | Fe   1   0.66667   1.33333   0.68865   |    0.00000   5.81403   9.47456    |
 | Fe   1  -0.33333   0.33333   0.68865   |   -2.51755   1.45351   9.47456    |
 ++++++++++++++++++++++++++++++++++++++++++++++++++++++++++++++++++++++++++++++
 |                4     Neighbors & Distance(Ang) =   3.702526                |
 |                ---------------------------------------------               |
 | Fe   1   0.00000   0.00000   0.64468   |    0.00000   0.00000   8.86957    |
 | Fe   1   0.66667   0.33333   0.97801   |    2.51755   1.45351  13.45560    |
 | Fe   1   1.00000   1.00000   0.64468   |    2.51755   4.36052   8.86957    |
 | Fe   1   0.00000   1.00000   0.64468   |   -2.51755   4.36052   8.86957    |
 | Fe   1   0.66667   1.33333   0.97801   |    0.00000   5.81403  13.45560    |
 | Fe   1  -0.33333   0.33333   0.97801   |   -2.51755   1.45351  13.45560    |
 ++++++++++++++++++++++++++++++++++++++++++++++++++++++++++++++++++++++++++++++
 |                5     Neighbors & Distance(Ang) =   3.981044                |
 |                ---------------------------------------------               |
 | Fe   1   0.33333   0.66667   0.52199   |   -0.00000   2.90702   7.18155    |
 *----------------------------------------------------------------------------*
 | Atom Type    Fractional Coordinate          Cartesian Coordinate (Ang)     |
 +----------------------------------------------------------------------------+
 | Fe   1   0.33333   0.66667   0.52199   |   -0.00000   2.90702   7.18155    |
 ++++++++++++++++++++++++++++++++++++++++++++++++++++++++++++++++++++++++++++++
 |                1     Neighbors & Distance(Ang) =   2.898006                |
 |                ---------------------------------------------               |
 | Fe   1   0.33333   0.66667   0.31135   |   -0.00000   2.90702   4.28354    |
 ++++++++++++++++++++++++++++++++++++++++++++++++++++++++++++++++++++++++++++++
 |                2     Neighbors & Distance(Ang) =   2.969310                |
 |                ---------------------------------------------               |
 | Fe   1   0.66667   0.33333   0.47801   |    2.51755   1.45351   6.57655    |
 | Fe   1   0.66667   1.33333   0.47801   |    0.00000   5.81403   6.57655    |
 | Fe   1  -0.33333   0.33333   0.47801   |   -2.51755   1.45351   6.57655    |
 ++++++++++++++++++++++++++++++++++++++++++++++++++++++++++++++++++++++++++++++
 |                3     Neighbors & Distance(Ang) =   3.361573                |
 |                ---------------------------------------------               |
 | Fe   1   0.00000   0.00000   0.64468   |    0.00000   0.00000   8.86957    |
 | Fe   1   1.00000   1.00000   0.64468   |    2.51755   4.36052   8.86957    |
 | Fe   1   0.00000   1.00000   0.64468   |   -2.51755   4.36052   8.86957    |
 ++++++++++++++++++++++++++++++++++++++++++++++++++++++++++++++++++++++++++++++
 |                4     Neighbors & Distance(Ang) =   3.702526                |
 |                ---------------------------------------------               |
 | Fe   1   0.00000   0.00000   0.35532   |    0.00000   0.00000   4.88853    |
 | Fe   1   0.66667   0.33333   0.68865   |    2.51755   1.45351   9.47456    |
 | Fe   1   1.00000   1.00000   0.35532   |    2.51755   4.36052   4.88853    |
 | Fe   1   0.00000   1.00000   0.35532   |   -2.51755   4.36052   4.88853    |
 | Fe   1   0.66667   1.33333   0.68865   |    0.00000   5.81403   9.47456    |
 | Fe   1  -0.33333   0.33333   0.68865   |   -2.51755   1.45351   9.47456    |
 ++++++++++++++++++++++++++++++++++++++++++++++++++++++++++++++++++++++++++++++
 |                5     Neighbors & Distance(Ang) =   3.981044                |
 |                ---------------------------------------------               |
 | Fe   1   0.33333   0.66667   0.81135   |   -0.00000   2.90702  11.16259    |
 *----------------------------------------------------------------------------*
 | Atom Type    Fractional Coordinate          Cartesian Coordinate (Ang)     |
 +----------------------------------------------------------------------------+
 | Fe   1   0.66667   0.33333   0.47801   |    2.51755   1.45351   6.57655    |
 ++++++++++++++++++++++++++++++++++++++++++++++++++++++++++++++++++++++++++++++
 |                1     Neighbors & Distance(Ang) =   2.898006                |
 |                ---------------------------------------------               |
 | Fe   1   0.66667   0.33333   0.68865   |    2.51755   1.45351   9.47456    |
 ++++++++++++++++++++++++++++++++++++++++++++++++++++++++++++++++++++++++++++++
 |                2     Neighbors & Distance(Ang) =   2.969310                |
 |                ---------------------------------------------               |
 | Fe   1   0.33333   0.66667   0.52199   |   -0.00000   2.90702   7.18155    |
 | Fe   1   1.33333   0.66667   0.52199   |    5.03510   2.90702   7.18155    |
 | Fe   1   0.33333  -0.33333   0.52199   |    2.51755  -1.45351   7.18155    |
 ++++++++++++++++++++++++++++++++++++++++++++++++++++++++++++++++++++++++++++++
 |                3     Neighbors & Distance(Ang) =   3.361573                |
 |                ---------------------------------------------               |
 | Fe   1   0.00000   0.00000   0.35532   |    0.00000   0.00000   4.88853    |
 | Fe   1   1.00000   1.00000   0.35532   |    2.51755   4.36052   4.88853    |
 | Fe   1   1.00000   0.00000   0.35532   |    5.03510   0.00000   4.88853    |
 ++++++++++++++++++++++++++++++++++++++++++++++++++++++++++++++++++++++++++++++
 |                4     Neighbors & Distance(Ang) =   3.702526                |
 |                ---------------------------------------------               |
 | Fe   1   0.00000   0.00000   0.64468   |    0.00000   0.00000   8.86957    |
 | Fe   1   0.33333   0.66667   0.31135   |   -0.00000   2.90702   4.28354    |
 | Fe   1   1.00000   1.00000   0.64468   |    2.51755   4.36052   8.86957    |
 | Fe   1   1.00000   0.00000   0.64468   |    5.03510   0.00000   8.86957    |
 | Fe   1   1.33333   0.66667   0.31135   |    5.03510   2.90702   4.28354    |
 | Fe   1   0.33333  -0.33333   0.31135   |    2.51755  -1.45351   4.28354    |
 ++++++++++++++++++++++++++++++++++++++++++++++++++++++++++++++++++++++++++++++
 |                5     Neighbors & Distance(Ang) =   3.981044                |
 |                ---------------------------------------------               |
 | Fe   1   0.66667   0.33333   0.18865   |    2.51755   1.45351   2.59551    |
 *----------------------------------------------------------------------------*
 | Atom Type    Fractional Coordinate          Cartesian Coordinate (Ang)     |
 +----------------------------------------------------------------------------+
 | Fe   1   0.66667   0.33333   0.18865   |    2.51755   1.45351   2.59551    |
 ++++++++++++++++++++++++++++++++++++++++++++++++++++++++++++++++++++++++++++++
 |                1     Neighbors & Distance(Ang) =   2.898006                |
 |                ---------------------------------------------               |
 | Fe   1   0.66667   0.33333  -0.02199   |    2.51755   1.45351  -0.30250    |
 ++++++++++++++++++++++++++++++++++++++++++++++++++++++++++++++++++++++++++++++
 |                2     Neighbors & Distance(Ang) =   2.969303                |
 |                ---------------------------------------------               |
 | Fe   1   0.00000   0.00000   0.14468   |    0.00000   0.00000   1.99052    |
 | Fe   1   1.00000   1.00000   0.14468   |    2.51755   4.36052   1.99052    |
 | Fe   1   1.00000   0.00000   0.14468   |    5.03510   0.00000   1.99052    |
 ++++++++++++++++++++++++++++++++++++++++++++++++++++++++++++++++++++++++++++++
 |                3     Neighbors & Distance(Ang) =   3.361584                |
 |                ---------------------------------------------               |
 | Fe   1   0.33333   0.66667   0.31135   |   -0.00000   2.90702   4.28354    |
 | Fe   1   1.33333   0.66667   0.31135   |    5.03510   2.90702   4.28354    |
 | Fe   1   0.33333  -0.33333   0.31135   |    2.51755  -1.45351   4.28354    |
 ++++++++++++++++++++++++++++++++++++++++++++++++++++++++++++++++++++++++++++++
 |                4     Neighbors & Distance(Ang) =   3.702526                |
 |                ---------------------------------------------               |
 | Fe   1   0.00000   0.00000   0.35532   |    0.00000   0.00000   4.88853    |
 | Fe   1   0.33333   0.66667   0.02199   |   -0.00000   2.90702   0.30250    |
 | Fe   1   1.00000   1.00000   0.35532   |    2.51755   4.36052   4.88853    |
 | Fe   1   1.00000   0.00000   0.35532   |    5.03510   0.00000   4.88853    |
 | Fe   1   1.33333   0.66667   0.02199   |    5.03510   2.90702   0.30250    |
 | Fe   1   0.33333  -0.33333   0.02199   |    2.51755  -1.45351   0.30250    |
 ++++++++++++++++++++++++++++++++++++++++++++++++++++++++++++++++++++++++++++++
 |                5     Neighbors & Distance(Ang) =   3.981044                |
 |                ---------------------------------------------               |
 | Fe   1   0.66667   0.33333   0.47801   |    2.51755   1.45351   6.57655    |
 *----------------------------------------------------------------------------*
  
