 #written on 16Dec2023 at 12:21:08 
 #------------------------------------------------- MONTECARLO -------------------------------------------------#
 # Temp      Magnetization     Energy_ave          C_M              Sus              U_E              U_M       #
 #--------------------------------------------------------------------------------------------------------------#
  10.0000   0.24482514E-02  -0.20965046E+04   0.10637491E+01   0.74489865E-03   0.66666666E+00   0.35604901E+00
  20.0000   0.34422951E-02  -0.20865263E+04   0.84330555E+00   0.74342156E-03   0.66666665E+00   0.34317346E+00
  30.0000   0.41472175E-02  -0.20763794E+04   0.10161589E+01   0.70395565E-03   0.66666661E+00   0.34875380E+00
  40.0000   0.48445511E-02  -0.20663783E+04   0.10478332E+01   0.71803544E-03   0.66666656E+00   0.35367890E+00
  50.0000   0.54566029E-02  -0.20562161E+04   0.10097023E+01   0.75273773E-03   0.66666650E+00   0.33533955E+00
  60.0000   0.59244789E-02  -0.20461323E+04   0.10610830E+01   0.74415111E-03   0.66666641E+00   0.33020078E+00
  70.0000   0.65362968E-02  -0.20359399E+04   0.10359066E+01   0.73522626E-03   0.66666633E+00   0.35225195E+00
  80.0000   0.69673069E-02  -0.20257641E+04   0.99135160E+00   0.72111726E-03   0.66666624E+00   0.35554813E+00
  90.0000   0.74237666E-02  -0.20154959E+04   0.98601593E+00   0.73956567E-03   0.66666612E+00   0.34861781E+00
 100.0000   0.77946018E-02  -0.20053137E+04   0.10189635E+01   0.70906409E-03   0.66666596E+00   0.36096943E+00
 110.0000   0.82118614E-02  -0.19950163E+04   0.10730023E+01   0.72639456E-03   0.66666576E+00   0.35004811E+00
 120.0000   0.85606730E-02  -0.19846316E+04   0.10273250E+01   0.72731371E-03   0.66666562E+00   0.34365666E+00
 130.0000   0.88518570E-02  -0.19743403E+04   0.98537149E+00   0.69691962E-03   0.66666548E+00   0.36366638E+00
 140.0000   0.91928904E-02  -0.19639816E+04   0.99533352E+00   0.69261094E-03   0.66666526E+00   0.35761783E+00
 150.0000   0.96280306E-02  -0.19537009E+04   0.10741326E+01   0.70266278E-03   0.66666491E+00   0.36401674E+00
 160.0000   0.99644989E-02  -0.19432103E+04   0.10440121E+01   0.70498391E-03   0.66666470E+00   0.36067370E+00
 170.0000   0.10293120E-01  -0.19328724E+04   0.10285435E+01   0.69152336E-03   0.66666446E+00   0.36695054E+00
 180.0000   0.10615128E-01  -0.19223091E+04   0.10759268E+01   0.70087782E-03   0.66666405E+00   0.36888236E+00
 190.0000   0.10952866E-01  -0.19117731E+04   0.10484317E+01   0.69819746E-03   0.66666379E+00   0.37425565E+00
 200.0000   0.11169622E-01  -0.19013729E+04   0.10657571E+01   0.68191064E-03   0.66666339E+00   0.37341797E+00
 210.0000   0.11545876E-01  -0.18906420E+04   0.10710628E+01   0.69708464E-03   0.66666300E+00   0.36953710E+00
 220.0000   0.11878315E-01  -0.18800286E+04   0.10609297E+01   0.69510901E-03   0.66666263E+00   0.37353064E+00
 230.0000   0.12004858E-01  -0.18693294E+04   0.10625065E+01   0.66408430E-03   0.66666220E+00   0.37918367E+00
 240.0000   0.12293026E-01  -0.18586881E+04   0.10633116E+01   0.67596059E-03   0.66666174E+00   0.37923905E+00
 250.0000   0.12603287E-01  -0.18478849E+04   0.10242009E+01   0.66905439E-03   0.66666146E+00   0.38494605E+00
 260.0000   0.12897637E-01  -0.18372057E+04   0.10482849E+01   0.67183705E-03   0.66666084E+00   0.38390602E+00
 270.0000   0.13246799E-01  -0.18263793E+04   0.10360937E+01   0.68170737E-03   0.66666038E+00   0.38501925E+00
 280.0000   0.13395825E-01  -0.18155869E+04   0.10862841E+01   0.66232303E-03   0.66665949E+00   0.38750416E+00
 290.0000   0.13675509E-01  -0.18049103E+04   0.10683410E+01   0.67672009E-03   0.66665901E+00   0.38562871E+00
 300.0000   0.13911770E-01  -0.17938690E+04   0.11298086E+01   0.67592219E-03   0.66665789E+00   0.38320190E+00
 310.0000   0.14212447E-01  -0.17827650E+04   0.10842267E+01   0.67075345E-03   0.66665756E+00   0.39030340E+00
 320.0000   0.14549386E-01  -0.17717182E+04   0.10938880E+01   0.67695114E-03   0.66665676E+00   0.39021974E+00
 330.0000   0.14774778E-01  -0.17606194E+04   0.11041862E+01   0.67156313E-03   0.66665589E+00   0.39290927E+00
 340.0000   0.14949227E-01  -0.17497709E+04   0.11171667E+01   0.65974564E-03   0.66665495E+00   0.39650411E+00
 350.0000   0.15199954E-01  -0.17385909E+04   0.11208184E+01   0.66119894E-03   0.66665405E+00   0.39624833E+00
 360.0000   0.15490749E-01  -0.17274300E+04   0.11054711E+01   0.66748896E-03   0.66665333E+00   0.39811927E+00
 370.0000   0.15702554E-01  -0.17161521E+04   0.11317866E+01   0.65796810E-03   0.66665205E+00   0.40108399E+00
 380.0000   0.15982654E-01  -0.17049573E+04   0.11354565E+01   0.67082290E-03   0.66665100E+00   0.39683454E+00
 390.0000   0.16259702E-01  -0.16934326E+04   0.11501925E+01   0.66867095E-03   0.66664972E+00   0.39772029E+00
 400.0000   0.16464493E-01  -0.16820755E+04   0.11214793E+01   0.66932081E-03   0.66664905E+00   0.40124345E+00
 410.0000   0.16692419E-01  -0.16706886E+04   0.10979721E+01   0.66204065E-03   0.66664830E+00   0.40448892E+00
 420.0000   0.16955662E-01  -0.16593363E+04   0.11562680E+01   0.66197623E-03   0.66664609E+00   0.40522203E+00
 430.0000   0.17200671E-01  -0.16477785E+04   0.11599933E+01   0.66025161E-03   0.66664473E+00   0.40806288E+00
 440.0000   0.17356547E-01  -0.16361791E+04   0.11460837E+01   0.65780240E-03   0.66664365E+00   0.40610593E+00
 450.0000   0.17498731E-01  -0.16244866E+04   0.11359880E+01   0.64429926E-03   0.66664246E+00   0.41341816E+00
 460.0000   0.17855717E-01  -0.16125693E+04   0.11570021E+01   0.66858901E-03   0.66664052E+00   0.40439047E+00
 470.0000   0.17942527E-01  -0.16007169E+04   0.12068842E+01   0.66449789E-03   0.66663777E+00   0.40563874E+00
 480.0000   0.18302076E-01  -0.15892004E+04   0.11867784E+01   0.65744800E-03   0.66663660E+00   0.41507165E+00
 490.0000   0.18373535E-01  -0.15770846E+04   0.12282141E+01   0.65636324E-03   0.66663374E+00   0.41007432E+00
 500.0000   0.18676952E-01  -0.15651161E+04   0.12095461E+01   0.66277993E-03   0.66663237E+00   0.41102981E+00
 510.0000   0.18948535E-01  -0.15531580E+04   0.12179386E+01   0.66593409E-03   0.66663019E+00   0.41027933E+00
 520.0000   0.19065488E-01  -0.15409712E+04   0.12046277E+01   0.65734970E-03   0.66662857E+00   0.41430942E+00
 530.0000   0.19327629E-01  -0.15287027E+04   0.12545227E+01   0.66668540E-03   0.66662480E+00   0.41393793E+00
 540.0000   0.19584781E-01  -0.15166535E+04   0.12516962E+01   0.66023364E-03   0.66662260E+00   0.41682298E+00
 550.0000   0.19868487E-01  -0.15040904E+04   0.12358032E+01   0.66634544E-03   0.66662078E+00   0.41556744E+00
 560.0000   0.20046065E-01  -0.14915666E+04   0.12605992E+01   0.66312015E-03   0.66661733E+00   0.42184877E+00
 570.0000   0.20270495E-01  -0.14793392E+04   0.12625023E+01   0.66634378E-03   0.66661462E+00   0.41951061E+00
 580.0000   0.20361143E-01  -0.14664078E+04   0.12382784E+01   0.65833077E-03   0.66661288E+00   0.42173060E+00
 590.0000   0.20666665E-01  -0.14536734E+04   0.13171536E+01   0.66529966E-03   0.66660641E+00   0.42179300E+00
 600.0000   0.20909152E-01  -0.14406267E+04   0.12896687E+01   0.67009608E-03   0.66660455E+00   0.42174656E+00
 610.0000   0.21024105E-01  -0.14281855E+04   0.12980989E+01   0.66859345E-03   0.66660091E+00   0.42111497E+00
 620.0000   0.21143117E-01  -0.14147921E+04   0.13104561E+01   0.66221310E-03   0.66659678E+00   0.42099889E+00
 630.0000   0.21561598E-01  -0.14016502E+04   0.13507855E+01   0.66862420E-03   0.66659088E+00   0.42575552E+00
 640.0000   0.21793571E-01  -0.13883208E+04   0.13093640E+01   0.67689283E-03   0.66658938E+00   0.42424621E+00
 650.0000   0.21836710E-01  -0.13748406E+04   0.13433989E+01   0.65969855E-03   0.66658327E+00   0.42719892E+00
 660.0000   0.22122755E-01  -0.13615485E+04   0.13513891E+01   0.67110168E-03   0.66657849E+00   0.42479797E+00
 670.0000   0.22285792E-01  -0.13484136E+04   0.14171630E+01   0.66198977E-03   0.66656950E+00   0.43029885E+00
 680.0000   0.22535205E-01  -0.13341453E+04   0.13907880E+01   0.67241244E-03   0.66656634E+00   0.42897742E+00
 690.0000   0.22755392E-01  -0.13206090E+04   0.13657222E+01   0.66746710E-03   0.66656315E+00   0.43173501E+00
 700.0000   0.22894354E-01  -0.13065323E+04   0.14042927E+01   0.67585009E-03   0.66655474E+00   0.42566746E+00
 710.0000   0.23205880E-01  -0.12921019E+04   0.14332663E+01   0.67328867E-03   0.66654649E+00   0.43218794E+00
 720.0000   0.23478008E-01  -0.12780718E+04   0.14308979E+01   0.68381679E-03   0.66654060E+00   0.43107371E+00
 730.0000   0.23652518E-01  -0.12633702E+04   0.14739285E+01   0.68674542E-03   0.66653006E+00   0.42992138E+00
 740.0000   0.23798266E-01  -0.12486501E+04   0.14591282E+01   0.68096504E-03   0.66652435E+00   0.43165265E+00
 750.0000   0.23943938E-01  -0.12339516E+04   0.14599081E+01   0.67530197E-03   0.66651697E+00   0.43594280E+00
 760.0000   0.24231014E-01  -0.12192434E+04   0.15083034E+01   0.68232895E-03   0.66650401E+00   0.43611809E+00
 770.0000   0.24380537E-01  -0.12040510E+04   0.15232192E+01   0.67678238E-03   0.66649373E+00   0.43550896E+00
 780.0000   0.24610730E-01  -0.11888156E+04   0.15235317E+01   0.67394946E-03   0.66648458E+00   0.43714895E+00
 790.0000   0.24750316E-01  -0.11732599E+04   0.15774130E+01   0.67541038E-03   0.66646823E+00   0.44064778E+00
 800.0000   0.25026043E-01  -0.11576617E+04   0.15603320E+01   0.68356000E-03   0.66645982E+00   0.43889831E+00
 810.0000   0.25143190E-01  -0.11418069E+04   0.15541326E+01   0.68484327E-03   0.66644953E+00   0.43693651E+00
 820.0000   0.25453685E-01  -0.11256900E+04   0.16234678E+01   0.69117408E-03   0.66642757E+00   0.43772859E+00
 830.0000   0.25663188E-01  -0.11091948E+04   0.16481943E+01   0.69852835E-03   0.66641062E+00   0.43452367E+00
 840.0000   0.25828599E-01  -0.10931028E+04   0.16801243E+01   0.69380787E-03   0.66639120E+00   0.43606316E+00
 850.0000   0.25979153E-01  -0.10758841E+04   0.16950094E+01   0.69695665E-03   0.66637286E+00   0.43695924E+00
 860.0000   0.26332146E-01  -0.10591297E+04   0.17041602E+01   0.69806483E-03   0.66635474E+00   0.43947232E+00
 870.0000   0.26467406E-01  -0.10426099E+04   0.17449030E+01   0.70070477E-03   0.66632950E+00   0.43899668E+00
 880.0000   0.26673581E-01  -0.10247760E+04   0.17498611E+01   0.69591160E-03   0.66630866E+00   0.44220849E+00
 890.0000   0.26819805E-01  -0.10073719E+04   0.17664662E+01   0.69590289E-03   0.66628407E+00   0.44156594E+00
 900.0000   0.27045661E-01  -0.98945882E+03   0.18181055E+01   0.70360643E-03   0.66624931E+00   0.44012092E+00
 910.0000   0.27299640E-01  -0.97110856E+03   0.18266326E+01   0.70974735E-03   0.66622174E+00   0.44025621E+00
 920.0000   0.27413335E-01  -0.95281822E+03   0.18434074E+01   0.70294350E-03   0.66618937E+00   0.44429826E+00
 930.0000   0.27704726E-01  -0.93399358E+03   0.19200236E+01   0.70493262E-03   0.66613845E+00   0.44447162E+00
 940.0000   0.27878857E-01  -0.91487194E+03   0.19520627E+01   0.71512991E-03   0.66609499E+00   0.44010411E+00
 950.0000   0.28141301E-01  -0.89563917E+03   0.20314543E+01   0.71525684E-03   0.66603290E+00   0.44458749E+00
 960.0000   0.28394539E-01  -0.87528899E+03   0.19933345E+01   0.72707008E-03   0.66600179E+00   0.43954870E+00
 970.0000   0.28542483E-01  -0.85506912E+03   0.20874713E+01   0.71783026E-03   0.66592168E+00   0.44319856E+00
 980.0000   0.28698152E-01  -0.83558324E+03   0.20645702E+01   0.72099712E-03   0.66587885E+00   0.44187895E+00
 990.0000   0.28948901E-01  -0.81443374E+03   0.21674540E+01   0.73689914E-03   0.66577839E+00   0.44081719E+00
1000.0000   0.29097063E-01  -0.79292246E+03   0.20931662E+01   0.73277325E-03   0.66574353E+00   0.44263502E+00
