 #written on 14Dec2023 at 21:03:47 
 #------------------------------------------------- MONTECARLO -------------------------------------------------#
 # Temp      Magnetization     Energy_ave          C_M              Sus              U_E              U_M       #
 #--------------------------------------------------------------------------------------------------------------#
  10.0000   0.59529793E-02  -0.20469664E+04   0.96856531E+00   0.71934535E-03   0.66666663E+00   0.34864181E+00
  20.0000   0.85150501E-02  -0.20369874E+04   0.94554429E+00   0.75715977E-03   0.66666651E+00   0.32609887E+00
  30.0000   0.10416918E-01  -0.20268815E+04   0.10294228E+01   0.75221411E-03   0.66666628E+00   0.32810974E+00
  40.0000   0.12036616E-01  -0.20168907E+04   0.10370089E+01   0.71646397E-03   0.66666596E+00   0.34416001E+00
  50.0000   0.13655275E-01  -0.20066849E+04   0.10045784E+01   0.72936016E-03   0.66666558E+00   0.35161308E+00
  60.0000   0.14936422E-01  -0.19965409E+04   0.10020930E+01   0.72137692E-03   0.66666510E+00   0.34846303E+00
  70.0000   0.16204874E-01  -0.19863566E+04   0.98661199E+00   0.72773529E-03   0.66666454E+00   0.34912271E+00
  80.0000   0.17253850E-01  -0.19763352E+04   0.99569956E+00   0.71741027E-03   0.66666383E+00   0.34784377E+00
  90.0000   0.18369743E-01  -0.19660042E+04   0.10293836E+01   0.71378810E-03   0.66666292E+00   0.35131627E+00
 100.0000   0.19519018E-01  -0.19558603E+04   0.10135972E+01   0.70728564E-03   0.66666207E+00   0.36159734E+00
 110.0000   0.20383969E-01  -0.19455564E+04   0.10373855E+01   0.70047732E-03   0.66666091E+00   0.35780848E+00
 120.0000   0.21386434E-01  -0.19352584E+04   0.10402288E+01   0.70462993E-03   0.66665972E+00   0.36153594E+00
 130.0000   0.22232039E-01  -0.19249598E+04   0.10482314E+01   0.70042906E-03   0.66665837E+00   0.35902600E+00
 140.0000   0.23181066E-01  -0.19146663E+04   0.10383786E+01   0.69879343E-03   0.66665703E+00   0.36472622E+00
 150.0000   0.24027537E-01  -0.19043226E+04   0.10497547E+01   0.69208688E-03   0.66665536E+00   0.36688043E+00
 160.0000   0.24941860E-01  -0.18938154E+04   0.10168309E+01   0.69516859E-03   0.66665407E+00   0.36701330E+00
 170.0000   0.25618883E-01  -0.18834895E+04   0.10530232E+01   0.68953738E-03   0.66665178E+00   0.36650099E+00
 180.0000   0.26500275E-01  -0.18729531E+04   0.10495348E+01   0.68352239E-03   0.66664984E+00   0.37369768E+00
 190.0000   0.27379256E-01  -0.18623303E+04   0.10529961E+01   0.68995653E-03   0.66664764E+00   0.37375258E+00
 200.0000   0.28113843E-01  -0.18517458E+04   0.10387799E+01   0.68661614E-03   0.66664563E+00   0.37510623E+00
 210.0000   0.28788316E-01  -0.18411068E+04   0.10718443E+01   0.68310283E-03   0.66664246E+00   0.37611858E+00
 220.0000   0.29550611E-01  -0.18305177E+04   0.10762922E+01   0.68096629E-03   0.66663968E+00   0.37766117E+00
 230.0000   0.30283055E-01  -0.18200645E+04   0.10527897E+01   0.67872318E-03   0.66663749E+00   0.38133963E+00
 240.0000   0.30918956E-01  -0.18092277E+04   0.10693739E+01   0.67961242E-03   0.66663401E+00   0.37866123E+00
 250.0000   0.31588724E-01  -0.17986659E+04   0.10830123E+01   0.67700496E-03   0.66663036E+00   0.38088731E+00
 260.0000   0.32412906E-01  -0.17878149E+04   0.10791216E+01   0.67727737E-03   0.66662706E+00   0.38361322E+00
 270.0000   0.33016647E-01  -0.17770045E+04   0.10817718E+01   0.67554115E-03   0.66662333E+00   0.38550567E+00
 280.0000   0.33699110E-01  -0.17660424E+04   0.10926624E+01   0.67244335E-03   0.66661900E+00   0.38733378E+00
 290.0000   0.34385103E-01  -0.17552633E+04   0.10854487E+01   0.67028553E-03   0.66661525E+00   0.38991185E+00
 300.0000   0.35035510E-01  -0.17445452E+04   0.11072938E+01   0.67194755E-03   0.66660985E+00   0.38946254E+00
 310.0000   0.35741553E-01  -0.17333033E+04   0.10946974E+01   0.67052921E-03   0.66660591E+00   0.39214297E+00
 320.0000   0.36370153E-01  -0.17223238E+04   0.10985718E+01   0.66847379E-03   0.66660086E+00   0.39376657E+00
 330.0000   0.36952040E-01  -0.17114728E+04   0.11060567E+01   0.66373295E-03   0.66659531E+00   0.39631521E+00
 340.0000   0.37574256E-01  -0.17001100E+04   0.11203686E+01   0.66716472E-03   0.66658893E+00   0.39612683E+00
 350.0000   0.38184233E-01  -0.16890736E+04   0.11152547E+01   0.66502433E-03   0.66658359E+00   0.39795755E+00
 360.0000   0.38758284E-01  -0.16778161E+04   0.11292170E+01   0.66428117E-03   0.66657647E+00   0.39931329E+00
 370.0000   0.39410818E-01  -0.16666490E+04   0.11345314E+01   0.66102297E-03   0.66656966E+00   0.40238725E+00
 380.0000   0.40069668E-01  -0.16551255E+04   0.11312117E+01   0.66129578E-03   0.66656322E+00   0.40268900E+00
 390.0000   0.40741039E-01  -0.16439346E+04   0.11309681E+01   0.66487484E-03   0.66655624E+00   0.40431626E+00
 400.0000   0.41314533E-01  -0.16325433E+04   0.11364948E+01   0.66737170E-03   0.66654830E+00   0.40345103E+00
 410.0000   0.41805704E-01  -0.16208056E+04   0.11448151E+01   0.66199186E-03   0.66653959E+00   0.40578197E+00
 420.0000   0.42407174E-01  -0.16094793E+04   0.11581637E+01   0.66559611E-03   0.66652986E+00   0.40522871E+00
 430.0000   0.43037296E-01  -0.15978045E+04   0.11663248E+01   0.66108596E-03   0.66652016E+00   0.40948775E+00
 440.0000   0.43577395E-01  -0.15859824E+04   0.11563335E+01   0.66131365E-03   0.66651229E+00   0.40879846E+00
 450.0000   0.44088937E-01  -0.15743564E+04   0.11704555E+01   0.65825647E-03   0.66650082E+00   0.41117485E+00
 460.0000   0.44712488E-01  -0.15626701E+04   0.11534269E+01   0.66229705E-03   0.66649333E+00   0.41163156E+00
 470.0000   0.45280463E-01  -0.15506809E+04   0.11805007E+01   0.66114453E-03   0.66647855E+00   0.41226564E+00
 480.0000   0.45861394E-01  -0.15390198E+04   0.11950426E+01   0.66170971E-03   0.66646506E+00   0.41329100E+00
 490.0000   0.46442846E-01  -0.15268863E+04   0.11983736E+01   0.66692777E-03   0.66645267E+00   0.41178879E+00
 500.0000   0.46919102E-01  -0.15150703E+04   0.12044477E+01   0.65951472E-03   0.66643918E+00   0.41565880E+00
 510.0000   0.47571501E-01  -0.15026620E+04   0.12222782E+01   0.66598371E-03   0.66642257E+00   0.41520381E+00
 520.0000   0.48095832E-01  -0.14905511E+04   0.12207454E+01   0.66236821E-03   0.66640906E+00   0.41682142E+00
 530.0000   0.48664490E-01  -0.14781095E+04   0.12341657E+01   0.66592408E-03   0.66639154E+00   0.41641244E+00
 540.0000   0.49213014E-01  -0.14658809E+04   0.12493702E+01   0.66774452E-03   0.66637278E+00   0.41815907E+00
 550.0000   0.49717291E-01  -0.14534911E+04   0.12561367E+01   0.65849509E-03   0.66635480E+00   0.42225059E+00
 560.0000   0.50222362E-01  -0.14408491E+04   0.12606756E+01   0.66513407E-03   0.66633655E+00   0.42038444E+00
 570.0000   0.50808789E-01  -0.14283613E+04   0.12617916E+01   0.66841437E-03   0.66631845E+00   0.42107649E+00
 580.0000   0.51441168E-01  -0.14154722E+04   0.12725436E+01   0.66359383E-03   0.66629639E+00   0.42439926E+00
 590.0000   0.51892228E-01  -0.14025671E+04   0.12991426E+01   0.66868924E-03   0.66626831E+00   0.42410359E+00
 600.0000   0.52519388E-01  -0.13896292E+04   0.12845464E+01   0.66577940E-03   0.66625172E+00   0.42686891E+00
 610.0000   0.53088923E-01  -0.13765683E+04   0.13104343E+01   0.66957596E-03   0.66622073E+00   0.42547705E+00
 620.0000   0.53503033E-01  -0.13633938E+04   0.13331245E+01   0.66912944E-03   0.66618918E+00   0.42637106E+00
 630.0000   0.54016121E-01  -0.13502549E+04   0.13395572E+01   0.66870990E-03   0.66616161E+00   0.42713481E+00
 640.0000   0.54649723E-01  -0.13368948E+04   0.13500868E+01   0.66584135E-03   0.66613070E+00   0.43089769E+00
 650.0000   0.55126891E-01  -0.13230504E+04   0.13591674E+01   0.67082982E-03   0.66609833E+00   0.42893966E+00
 660.0000   0.55576542E-01  -0.13094126E+04   0.13864484E+01   0.67298210E-03   0.66605667E+00   0.42893658E+00
 670.0000   0.56133104E-01  -0.12956699E+04   0.13637836E+01   0.67455958E-03   0.66603518E+00   0.42950200E+00
 680.0000   0.56658724E-01  -0.12818966E+04   0.13975201E+01   0.67284082E-03   0.66598567E+00   0.43056855E+00
 690.0000   0.57243164E-01  -0.12676854E+04   0.14157394E+01   0.67092614E-03   0.66594068E+00   0.43423553E+00
 700.0000   0.57927735E-01  -0.12535601E+04   0.14277489E+01   0.67701871E-03   0.66589585E+00   0.43390325E+00
 710.0000   0.58254641E-01  -0.12389264E+04   0.14680486E+01   0.67943576E-03   0.66583216E+00   0.43279117E+00
 720.0000   0.58790933E-01  -0.12247888E+04   0.14334131E+01   0.67951625E-03   0.66580929E+00   0.43408006E+00
 730.0000   0.59269742E-01  -0.12101398E+04   0.14666870E+01   0.67744864E-03   0.66574318E+00   0.43528058E+00
 740.0000   0.59797618E-01  -0.11948588E+04   0.14776278E+01   0.67925808E-03   0.66568589E+00   0.43472113E+00
 750.0000   0.60419626E-01  -0.11802155E+04   0.15220669E+01   0.68331850E-03   0.66560322E+00   0.43681105E+00
 760.0000   0.60904342E-01  -0.11648653E+04   0.15034375E+01   0.68457493E-03   0.66555969E+00   0.43643160E+00
 770.0000   0.61495980E-01  -0.11493341E+04   0.15524650E+01   0.68602990E-03   0.66546165E+00   0.43775667E+00
 780.0000   0.61946108E-01  -0.11341757E+04   0.15707765E+01   0.68866448E-03   0.66538217E+00   0.43690917E+00
 790.0000   0.62407995E-01  -0.11179792E+04   0.15849524E+01   0.69236657E-03   0.66529796E+00   0.43627804E+00
 800.0000   0.63024437E-01  -0.11023386E+04   0.16251169E+01   0.69250029E-03   0.66518757E+00   0.43742328E+00
 810.0000   0.63512619E-01  -0.10862349E+04   0.16384167E+01   0.69128744E-03   0.66509267E+00   0.43878872E+00
 820.0000   0.64020100E-01  -0.10694921E+04   0.16332252E+01   0.69678500E-03   0.66500755E+00   0.43882911E+00
 830.0000   0.64580968E-01  -0.10530561E+04   0.16643660E+01   0.69877321E-03   0.66488093E+00   0.43881236E+00
 840.0000   0.65158771E-01  -0.10361356E+04   0.17233134E+01   0.70240074E-03   0.66471238E+00   0.43931834E+00
 850.0000   0.65687688E-01  -0.10192883E+04   0.17111211E+01   0.70510717E-03   0.66461303E+00   0.44040319E+00
 860.0000   0.66155800E-01  -0.10022120E+04   0.17531110E+01   0.70488356E-03   0.66444007E+00   0.44032246E+00
 870.0000   0.66626652E-01  -0.98455317E+03   0.17602100E+01   0.70799133E-03   0.66429660E+00   0.43956704E+00
 880.0000   0.67187590E-01  -0.96684915E+03   0.17971486E+01   0.71133215E-03   0.66410021E+00   0.44040274E+00
 890.0000   0.67651970E-01  -0.94889620E+03   0.18090128E+01   0.71259007E-03   0.66392490E+00   0.44052784E+00
 900.0000   0.68178684E-01  -0.93004335E+03   0.18644562E+01   0.70967596E-03   0.66366114E+00   0.44231250E+00
 910.0000   0.68790798E-01  -0.91113404E+03   0.18663480E+01   0.71687289E-03   0.66345902E+00   0.44167641E+00
 920.0000   0.69354705E-01  -0.89259085E+03   0.19268210E+01   0.72222655E-03   0.66314449E+00   0.44149539E+00
 930.0000   0.69766091E-01  -0.87357214E+03   0.19240158E+01   0.72030414E-03   0.66291760E+00   0.44179450E+00
 940.0000   0.70280725E-01  -0.85342804E+03   0.19658554E+01   0.72263285E-03   0.66256251E+00   0.44237281E+00
 950.0000   0.70801567E-01  -0.83353071E+03   0.19810510E+01   0.72659494E-03   0.66224670E+00   0.44272832E+00
 960.0000   0.71319576E-01  -0.81397271E+03   0.20452755E+01   0.72968953E-03   0.66178195E+00   0.44281316E+00
 970.0000   0.71821671E-01  -0.79267676E+03   0.20852269E+01   0.73127845E-03   0.66131733E+00   0.44344766E+00
 980.0000   0.72231963E-01  -0.77136904E+03   0.21105517E+01   0.73156669E-03   0.66082674E+00   0.44283061E+00
 990.0000   0.72871930E-01  -0.75024167E+03   0.21746822E+01   0.73768228E-03   0.66017324E+00   0.44238140E+00
1000.0000   0.73427765E-01  -0.72844093E+03   0.22017882E+01   0.73694697E-03   0.65955757E+00   0.44448372E+00
