 #written on 14Dec2023 at 19:01:45 
 #------------------------------------------------- MONTECARLO -------------------------------------------------#
 # Temp      Magnetization     Energy_ave          C_M              Sus              U_E              U_M       #
 #--------------------------------------------------------------------------------------------------------------#
  10.0000   0.59814685E-02  -0.20469855E+04   0.10070662E+01   0.75147038E-03   0.66666662E+00   0.32315647E+00
  20.0000   0.84862822E-02  -0.20369647E+04   0.99692316E+00   0.72887091E-03   0.66666650E+00   0.34520021E+00
  30.0000   0.10309527E-01  -0.20269032E+04   0.10081796E+01   0.71456576E-03   0.66666628E+00   0.34337363E+00
  40.0000   0.12095639E-01  -0.20168134E+04   0.10262413E+01   0.73361309E-03   0.66666597E+00   0.34022149E+00
  50.0000   0.13479654E-01  -0.20067483E+04   0.10068895E+01   0.71856669E-03   0.66666558E+00   0.34259973E+00
  60.0000   0.14863266E-01  -0.19965744E+04   0.10223499E+01   0.72469907E-03   0.66666506E+00   0.34354852E+00
  70.0000   0.16165305E-01  -0.19864537E+04   0.10245252E+01   0.72022877E-03   0.66666446E+00   0.34883507E+00
  80.0000   0.17256353E-01  -0.19762641E+04   0.10205500E+01   0.71540703E-03   0.66666376E+00   0.34876389E+00
  90.0000   0.18303428E-01  -0.19659875E+04   0.10365785E+01   0.70619760E-03   0.66666290E+00   0.35289360E+00
 100.0000   0.19386927E-01  -0.19558581E+04   0.10226031E+01   0.70112278E-03   0.66666203E+00   0.35934031E+00
 110.0000   0.20388097E-01  -0.19456086E+04   0.10214115E+01   0.70858305E-03   0.66666100E+00   0.35448189E+00
 120.0000   0.21394771E-01  -0.19352771E+04   0.10428660E+01   0.71054950E-03   0.66665971E+00   0.35827454E+00
 130.0000   0.22260198E-01  -0.19249400E+04   0.10258587E+01   0.70030409E-03   0.66665855E+00   0.35958311E+00
 140.0000   0.23212461E-01  -0.19145218E+04   0.10368519E+01   0.69938229E-03   0.66665704E+00   0.36334031E+00
 150.0000   0.24015153E-01  -0.19041972E+04   0.10383598E+01   0.69096610E-03   0.66665548E+00   0.36801152E+00
 160.0000   0.24876549E-01  -0.18938523E+04   0.10721569E+01   0.69890143E-03   0.66665338E+00   0.36196573E+00
 170.0000   0.25744836E-01  -0.18832987E+04   0.10374691E+01   0.69624332E-03   0.66665199E+00   0.36539243E+00
 180.0000   0.26487271E-01  -0.18728247E+04   0.10485432E+01   0.69129496E-03   0.66664986E+00   0.36928594E+00
 190.0000   0.27252627E-01  -0.18623041E+04   0.10492678E+01   0.68750140E-03   0.66664771E+00   0.37190944E+00
 200.0000   0.28181510E-01  -0.18518278E+04   0.10669335E+01   0.68683959E-03   0.66664507E+00   0.37595110E+00
 210.0000   0.28737584E-01  -0.18412164E+04   0.10567212E+01   0.68184067E-03   0.66664281E+00   0.37613051E+00
 220.0000   0.29490553E-01  -0.18306832E+04   0.10626324E+01   0.67828347E-03   0.66664003E+00   0.37875517E+00
 230.0000   0.30284533E-01  -0.18198957E+04   0.10580219E+01   0.68159087E-03   0.66663734E+00   0.37890115E+00
 240.0000   0.30941969E-01  -0.18091733E+04   0.10806675E+01   0.67820975E-03   0.66663366E+00   0.37944698E+00
 250.0000   0.31807480E-01  -0.17985571E+04   0.10758964E+01   0.68011025E-03   0.66663060E+00   0.38505658E+00
 260.0000   0.32409666E-01  -0.17878998E+04   0.10608228E+01   0.67417652E-03   0.66662773E+00   0.38498925E+00
 270.0000   0.32990505E-01  -0.17769442E+04   0.10912959E+01   0.67300114E-03   0.66662295E+00   0.38582814E+00
 280.0000   0.33622897E-01  -0.17662943E+04   0.10786385E+01   0.66749461E-03   0.66661963E+00   0.38775882E+00
 290.0000   0.34455098E-01  -0.17552132E+04   0.10867133E+01   0.67586428E-03   0.66661518E+00   0.38808317E+00
 300.0000   0.35124291E-01  -0.17441011E+04   0.11101294E+01   0.67150909E-03   0.66660967E+00   0.39090309E+00
 310.0000   0.35648616E-01  -0.17332353E+04   0.11123585E+01   0.66990370E-03   0.66660493E+00   0.39235954E+00
 320.0000   0.36361571E-01  -0.17222864E+04   0.10978751E+01   0.66980400E-03   0.66660090E+00   0.39433487E+00
 330.0000   0.36937218E-01  -0.17112444E+04   0.11198127E+01   0.66817139E-03   0.66659442E+00   0.39482809E+00
 340.0000   0.37564770E-01  -0.17000023E+04   0.11025687E+01   0.66580194E-03   0.66659014E+00   0.39708519E+00
 350.0000   0.38247163E-01  -0.16890432E+04   0.11185728E+01   0.66359042E-03   0.66658334E+00   0.39877286E+00
 360.0000   0.38850054E-01  -0.16776761E+04   0.11296623E+01   0.66709620E-03   0.66657643E+00   0.39940657E+00
 370.0000   0.39367167E-01  -0.16665878E+04   0.11399297E+01   0.66376093E-03   0.66656918E+00   0.40049789E+00
 380.0000   0.40041510E-01  -0.16553044E+04   0.11220737E+01   0.66812780E-03   0.66656408E+00   0.39878269E+00
 390.0000   0.40644545E-01  -0.16438193E+04   0.11407519E+01   0.66133556E-03   0.66655527E+00   0.40444778E+00
 400.0000   0.41277490E-01  -0.16322108E+04   0.11362728E+01   0.66672031E-03   0.66654829E+00   0.40309690E+00
 410.0000   0.41853240E-01  -0.16208055E+04   0.11467403E+01   0.66340116E-03   0.66653939E+00   0.40435432E+00
 420.0000   0.42437737E-01  -0.16096627E+04   0.11554157E+01   0.66457582E-03   0.66653020E+00   0.40618463E+00
 430.0000   0.43103955E-01  -0.15978135E+04   0.11633699E+01   0.66187983E-03   0.66652056E+00   0.41011581E+00
 440.0000   0.43581315E-01  -0.15861923E+04   0.11685173E+01   0.66013665E-03   0.66651072E+00   0.41009721E+00
 450.0000   0.44099550E-01  -0.15743886E+04   0.11691650E+01   0.66537688E-03   0.66650102E+00   0.40731268E+00
 460.0000   0.44719374E-01  -0.15627721E+04   0.11709788E+01   0.66208476E-03   0.66649074E+00   0.41065790E+00
 470.0000   0.45253782E-01  -0.15508386E+04   0.11926936E+01   0.66186499E-03   0.66647667E+00   0.41250188E+00
 480.0000   0.45872769E-01  -0.15389875E+04   0.11976224E+01   0.66130998E-03   0.66646470E+00   0.41428113E+00
 490.0000   0.46310375E-01  -0.15267924E+04   0.12107283E+01   0.65736335E-03   0.66645045E+00   0.41629545E+00
 500.0000   0.47063853E-01  -0.15147203E+04   0.12231530E+01   0.66419170E-03   0.66643561E+00   0.41499732E+00
 510.0000   0.47559285E-01  -0.15026733E+04   0.12110899E+01   0.66091117E-03   0.66642481E+00   0.41814443E+00
 520.0000   0.48180230E-01  -0.14902995E+04   0.12202840E+01   0.66317813E-03   0.66640906E+00   0.41951363E+00
 530.0000   0.48706543E-01  -0.14784014E+04   0.12185095E+01   0.66311947E-03   0.66639524E+00   0.41982895E+00
 540.0000   0.49218612E-01  -0.14657004E+04   0.12363000E+01   0.66103545E-03   0.66637584E+00   0.42147689E+00
 550.0000   0.49704580E-01  -0.14532981E+04   0.12523699E+01   0.66352527E-03   0.66635568E+00   0.42056348E+00
 560.0000   0.50297692E-01  -0.14407948E+04   0.12606385E+01   0.66554693E-03   0.66633657E+00   0.42126044E+00
 570.0000   0.50820041E-01  -0.14284341E+04   0.12678858E+01   0.66166871E-03   0.66631680E+00   0.42340868E+00
 580.0000   0.51431521E-01  -0.14154177E+04   0.12725309E+01   0.66834741E-03   0.66629632E+00   0.42318604E+00
